#INFO: **** input file is /projects/bcdd/amahajan1/ad_afqmc/runs/h2_n/sto/cisd/100/h2n.mf.py ****
import sys, os
import numpy as np
from pyscf import gto, scf, cc, lib, ci
from ad_afqmc import pyscf_interface, wavefunctions
import time
import pickle

args = sys.argv
n = int(args[1])

d_1 = 2.0
d_2 = 10.0
geom = ""
for i in range(n):
    geom += f"H {i * d_2} 0 0; H {i * d_2} 0 {d_1}; "

mol = gto.M(
    atom=geom,
    basis="sto-6g",
    unit="bohr",
    verbose=4,
)
norb_frozen = 0

mf = scf.RHF(mol)
mf.chkfile = 'mf.chk'
mf.level_shift = 0.5
mf.kernel()
mo1 = mf.stability()[0]
mf = mf.newton().run(mo1, mf.mo_occ)
mo1 = mf.stability()[0]
mf = mf.newton().run(mo1, mf.mo_occ)
mf.stability()
mf.analyze()

pyscf_interface.prep_afqmc(mf)

mycisd = ci.CISD(mf)
mycisd.frozen = norb_frozen
mycisd.run()

# pyscf_interface.prep_afqmc(mf, norb_frozen=norb_frozen)
ci0, ci1, ci2 = mycisd.cisdvec_to_amplitudes(mycisd.ci, mycisd.nmo, mycisd.nocc)
ci2 = ci2.transpose(0, 2, 1, 3) / ci0
ci1 = ci1 / ci0

trial = wavefunctions.cisd(sum(ci1.shape), (ci1.shape[0], ci1.shape[0]))
wave_data = {}
wave_data["ci1"] = ci1
wave_data["ci2"] = ci2
# write wavefunction to disk
with open("trial.pkl", "wb") as f:
    pickle.dump([trial, wave_data], f)


#INFO: ******************** input file end ********************


System: uname_result(system='Linux', node='cn094.delta.ncsa.illinois.edu', release='4.18.0-477.70.1.el8_8.x86_64', version='#1 SMP Fri Aug 16 10:41:15 EDT 2024', machine='x86_64')  Threads 10
Python 3.12.4 | packaged by Anaconda, Inc. | (main, Jun 18 2024, 15:12:24) [GCC 11.2.0]
numpy 2.1.0  scipy 1.14.1  h5py 3.11.0
Date: Sat Sep 14 09:06:37 2024
PySCF version 2.6.2
PySCF path  /projects/bcdd/amahajan1/miniconda/lib/python3.12/site-packages/pyscf

[CONFIG] conf_file None
[INPUT] verbose = 4
[INPUT] num. atoms = 200
[INPUT] num. electrons = 200
[INPUT] charge = 0
[INPUT] spin (= nelec alpha-beta = 2S) = 0
[INPUT] symmetry False subgroup None
[INPUT] Mole.unit = bohr
[INPUT] Symbol           X                Y                Z      unit          X                Y                Z       unit  Magmom
[INPUT]  1 H      0.000000000000   0.000000000000   0.000000000000 AA    0.000000000000   0.000000000000   0.000000000000 Bohr   0.0
[INPUT]  2 H      0.000000000000   0.000000000000   1.058354421840 AA    0.000000000000   0.000000000000   2.000000000000 Bohr   0.0
[INPUT]  3 H      5.291772109200   0.000000000000   0.000000000000 AA   10.000000000000   0.000000000000   0.000000000000 Bohr   0.0
[INPUT]  4 H      5.291772109200   0.000000000000   1.058354421840 AA   10.000000000000   0.000000000000   2.000000000000 Bohr   0.0
[INPUT]  5 H     10.583544218400   0.000000000000   0.000000000000 AA   20.000000000000   0.000000000000   0.000000000000 Bohr   0.0
[INPUT]  6 H     10.583544218400   0.000000000000   1.058354421840 AA   20.000000000000   0.000000000000   2.000000000000 Bohr   0.0
[INPUT]  7 H     15.875316327600   0.000000000000   0.000000000000 AA   30.000000000000   0.000000000000   0.000000000000 Bohr   0.0
[INPUT]  8 H     15.875316327600   0.000000000000   1.058354421840 AA   30.000000000000   0.000000000000   2.000000000000 Bohr   0.0
[INPUT]  9 H     21.167088436800   0.000000000000   0.000000000000 AA   40.000000000000   0.000000000000   0.000000000000 Bohr   0.0
[INPUT] 10 H     21.167088436800   0.000000000000   1.058354421840 AA   40.000000000000   0.000000000000   2.000000000000 Bohr   0.0
[INPUT] 11 H     26.458860546000   0.000000000000   0.000000000000 AA   50.000000000000   0.000000000000   0.000000000000 Bohr   0.0
[INPUT] 12 H     26.458860546000   0.000000000000   1.058354421840 AA   50.000000000000   0.000000000000   2.000000000000 Bohr   0.0
[INPUT] 13 H     31.750632655200   0.000000000000   0.000000000000 AA   60.000000000000   0.000000000000   0.000000000000 Bohr   0.0
[INPUT] 14 H     31.750632655200   0.000000000000   1.058354421840 AA   60.000000000000   0.000000000000   2.000000000000 Bohr   0.0
[INPUT] 15 H     37.042404764400   0.000000000000   0.000000000000 AA   70.000000000000   0.000000000000   0.000000000000 Bohr   0.0
[INPUT] 16 H     37.042404764400   0.000000000000   1.058354421840 AA   70.000000000000   0.000000000000   2.000000000000 Bohr   0.0
[INPUT] 17 H     42.334176873600   0.000000000000   0.000000000000 AA   80.000000000000   0.000000000000   0.000000000000 Bohr   0.0
[INPUT] 18 H     42.334176873600   0.000000000000   1.058354421840 AA   80.000000000000   0.000000000000   2.000000000000 Bohr   0.0
[INPUT] 19 H     47.625948982800   0.000000000000   0.000000000000 AA   90.000000000000   0.000000000000   0.000000000000 Bohr   0.0
[INPUT] 20 H     47.625948982800   0.000000000000   1.058354421840 AA   90.000000000000   0.000000000000   2.000000000000 Bohr   0.0
[INPUT] 21 H     52.917721092000   0.000000000000   0.000000000000 AA  100.000000000000   0.000000000000   0.000000000000 Bohr   0.0
[INPUT] 22 H     52.917721092000   0.000000000000   1.058354421840 AA  100.000000000000   0.000000000000   2.000000000000 Bohr   0.0
[INPUT] 23 H     58.209493201200   0.000000000000   0.000000000000 AA  110.000000000000   0.000000000000   0.000000000000 Bohr   0.0
[INPUT] 24 H     58.209493201200   0.000000000000   1.058354421840 AA  110.000000000000   0.000000000000   2.000000000000 Bohr   0.0
[INPUT] 25 H     63.501265310400   0.000000000000   0.000000000000 AA  120.000000000000   0.000000000000   0.000000000000 Bohr   0.0
[INPUT] 26 H     63.501265310400   0.000000000000   1.058354421840 AA  120.000000000000   0.000000000000   2.000000000000 Bohr   0.0
[INPUT] 27 H     68.793037419600   0.000000000000   0.000000000000 AA  130.000000000000   0.000000000000   0.000000000000 Bohr   0.0
[INPUT] 28 H     68.793037419600   0.000000000000   1.058354421840 AA  130.000000000000   0.000000000000   2.000000000000 Bohr   0.0
[INPUT] 29 H     74.084809528800   0.000000000000   0.000000000000 AA  140.000000000000   0.000000000000   0.000000000000 Bohr   0.0
[INPUT] 30 H     74.084809528800   0.000000000000   1.058354421840 AA  140.000000000000   0.000000000000   2.000000000000 Bohr   0.0
[INPUT] 31 H     79.376581638000   0.000000000000   0.000000000000 AA  150.000000000000   0.000000000000   0.000000000000 Bohr   0.0
[INPUT] 32 H     79.376581638000   0.000000000000   1.058354421840 AA  150.000000000000   0.000000000000   2.000000000000 Bohr   0.0
[INPUT] 33 H     84.668353747200   0.000000000000   0.000000000000 AA  160.000000000000   0.000000000000   0.000000000000 Bohr   0.0
[INPUT] 34 H     84.668353747200   0.000000000000   1.058354421840 AA  160.000000000000   0.000000000000   2.000000000000 Bohr   0.0
[INPUT] 35 H     89.960125856400   0.000000000000   0.000000000000 AA  170.000000000000   0.000000000000   0.000000000000 Bohr   0.0
[INPUT] 36 H     89.960125856400   0.000000000000   1.058354421840 AA  170.000000000000   0.000000000000   2.000000000000 Bohr   0.0
[INPUT] 37 H     95.251897965600   0.000000000000   0.000000000000 AA  180.000000000000   0.000000000000   0.000000000000 Bohr   0.0
[INPUT] 38 H     95.251897965600   0.000000000000   1.058354421840 AA  180.000000000000   0.000000000000   2.000000000000 Bohr   0.0
[INPUT] 39 H    100.543670074800   0.000000000000   0.000000000000 AA  190.000000000000   0.000000000000   0.000000000000 Bohr   0.0
[INPUT] 40 H    100.543670074800   0.000000000000   1.058354421840 AA  190.000000000000   0.000000000000   2.000000000000 Bohr   0.0
[INPUT] 41 H    105.835442184000   0.000000000000   0.000000000000 AA  200.000000000000   0.000000000000   0.000000000000 Bohr   0.0
[INPUT] 42 H    105.835442184000   0.000000000000   1.058354421840 AA  200.000000000000   0.000000000000   2.000000000000 Bohr   0.0
[INPUT] 43 H    111.127214293200   0.000000000000   0.000000000000 AA  210.000000000000   0.000000000000   0.000000000000 Bohr   0.0
[INPUT] 44 H    111.127214293200   0.000000000000   1.058354421840 AA  210.000000000000   0.000000000000   2.000000000000 Bohr   0.0
[INPUT] 45 H    116.418986402400   0.000000000000   0.000000000000 AA  220.000000000000   0.000000000000   0.000000000000 Bohr   0.0
[INPUT] 46 H    116.418986402400   0.000000000000   1.058354421840 AA  220.000000000000   0.000000000000   2.000000000000 Bohr   0.0
[INPUT] 47 H    121.710758511600   0.000000000000   0.000000000000 AA  230.000000000000   0.000000000000   0.000000000000 Bohr   0.0
[INPUT] 48 H    121.710758511600   0.000000000000   1.058354421840 AA  230.000000000000   0.000000000000   2.000000000000 Bohr   0.0
[INPUT] 49 H    127.002530620800   0.000000000000   0.000000000000 AA  240.000000000000   0.000000000000   0.000000000000 Bohr   0.0
[INPUT] 50 H    127.002530620800   0.000000000000   1.058354421840 AA  240.000000000000   0.000000000000   2.000000000000 Bohr   0.0
[INPUT] 51 H    132.294302730000   0.000000000000   0.000000000000 AA  250.000000000000   0.000000000000   0.000000000000 Bohr   0.0
[INPUT] 52 H    132.294302730000   0.000000000000   1.058354421840 AA  250.000000000000   0.000000000000   2.000000000000 Bohr   0.0
[INPUT] 53 H    137.586074839200   0.000000000000   0.000000000000 AA  260.000000000000   0.000000000000   0.000000000000 Bohr   0.0
[INPUT] 54 H    137.586074839200   0.000000000000   1.058354421840 AA  260.000000000000   0.000000000000   2.000000000000 Bohr   0.0
[INPUT] 55 H    142.877846948400   0.000000000000   0.000000000000 AA  270.000000000000   0.000000000000   0.000000000000 Bohr   0.0
[INPUT] 56 H    142.877846948400   0.000000000000   1.058354421840 AA  270.000000000000   0.000000000000   2.000000000000 Bohr   0.0
[INPUT] 57 H    148.169619057600   0.000000000000   0.000000000000 AA  280.000000000000   0.000000000000   0.000000000000 Bohr   0.0
[INPUT] 58 H    148.169619057600   0.000000000000   1.058354421840 AA  280.000000000000   0.000000000000   2.000000000000 Bohr   0.0
[INPUT] 59 H    153.461391166800   0.000000000000   0.000000000000 AA  290.000000000000   0.000000000000   0.000000000000 Bohr   0.0
[INPUT] 60 H    153.461391166800   0.000000000000   1.058354421840 AA  290.000000000000   0.000000000000   2.000000000000 Bohr   0.0
[INPUT] 61 H    158.753163276000   0.000000000000   0.000000000000 AA  300.000000000000   0.000000000000   0.000000000000 Bohr   0.0
[INPUT] 62 H    158.753163276000   0.000000000000   1.058354421840 AA  300.000000000000   0.000000000000   2.000000000000 Bohr   0.0
[INPUT] 63 H    164.044935385200   0.000000000000   0.000000000000 AA  310.000000000000   0.000000000000   0.000000000000 Bohr   0.0
[INPUT] 64 H    164.044935385200   0.000000000000   1.058354421840 AA  310.000000000000   0.000000000000   2.000000000000 Bohr   0.0
[INPUT] 65 H    169.336707494400   0.000000000000   0.000000000000 AA  320.000000000000   0.000000000000   0.000000000000 Bohr   0.0
[INPUT] 66 H    169.336707494400   0.000000000000   1.058354421840 AA  320.000000000000   0.000000000000   2.000000000000 Bohr   0.0
[INPUT] 67 H    174.628479603600   0.000000000000   0.000000000000 AA  330.000000000000   0.000000000000   0.000000000000 Bohr   0.0
[INPUT] 68 H    174.628479603600   0.000000000000   1.058354421840 AA  330.000000000000   0.000000000000   2.000000000000 Bohr   0.0
[INPUT] 69 H    179.920251712800   0.000000000000   0.000000000000 AA  340.000000000000   0.000000000000   0.000000000000 Bohr   0.0
[INPUT] 70 H    179.920251712800   0.000000000000   1.058354421840 AA  340.000000000000   0.000000000000   2.000000000000 Bohr   0.0
[INPUT] 71 H    185.212023822000   0.000000000000   0.000000000000 AA  350.000000000000   0.000000000000   0.000000000000 Bohr   0.0
[INPUT] 72 H    185.212023822000   0.000000000000   1.058354421840 AA  350.000000000000   0.000000000000   2.000000000000 Bohr   0.0
[INPUT] 73 H    190.503795931200   0.000000000000   0.000000000000 AA  360.000000000000   0.000000000000   0.000000000000 Bohr   0.0
[INPUT] 74 H    190.503795931200   0.000000000000   1.058354421840 AA  360.000000000000   0.000000000000   2.000000000000 Bohr   0.0
[INPUT] 75 H    195.795568040400   0.000000000000   0.000000000000 AA  370.000000000000   0.000000000000   0.000000000000 Bohr   0.0
[INPUT] 76 H    195.795568040400   0.000000000000   1.058354421840 AA  370.000000000000   0.000000000000   2.000000000000 Bohr   0.0
[INPUT] 77 H    201.087340149600   0.000000000000   0.000000000000 AA  380.000000000000   0.000000000000   0.000000000000 Bohr   0.0
[INPUT] 78 H    201.087340149600   0.000000000000   1.058354421840 AA  380.000000000000   0.000000000000   2.000000000000 Bohr   0.0
[INPUT] 79 H    206.379112258800   0.000000000000   0.000000000000 AA  390.000000000000   0.000000000000   0.000000000000 Bohr   0.0
[INPUT] 80 H    206.379112258800   0.000000000000   1.058354421840 AA  390.000000000000   0.000000000000   2.000000000000 Bohr   0.0
[INPUT] 81 H    211.670884368000   0.000000000000   0.000000000000 AA  400.000000000000   0.000000000000   0.000000000000 Bohr   0.0
[INPUT] 82 H    211.670884368000   0.000000000000   1.058354421840 AA  400.000000000000   0.000000000000   2.000000000000 Bohr   0.0
[INPUT] 83 H    216.962656477200   0.000000000000   0.000000000000 AA  410.000000000000   0.000000000000   0.000000000000 Bohr   0.0
[INPUT] 84 H    216.962656477200   0.000000000000   1.058354421840 AA  410.000000000000   0.000000000000   2.000000000000 Bohr   0.0
[INPUT] 85 H    222.254428586400   0.000000000000   0.000000000000 AA  420.000000000000   0.000000000000   0.000000000000 Bohr   0.0
[INPUT] 86 H    222.254428586400   0.000000000000   1.058354421840 AA  420.000000000000   0.000000000000   2.000000000000 Bohr   0.0
[INPUT] 87 H    227.546200695600   0.000000000000   0.000000000000 AA  430.000000000000   0.000000000000   0.000000000000 Bohr   0.0
[INPUT] 88 H    227.546200695600   0.000000000000   1.058354421840 AA  430.000000000000   0.000000000000   2.000000000000 Bohr   0.0
[INPUT] 89 H    232.837972804800   0.000000000000   0.000000000000 AA  440.000000000000   0.000000000000   0.000000000000 Bohr   0.0
[INPUT] 90 H    232.837972804800   0.000000000000   1.058354421840 AA  440.000000000000   0.000000000000   2.000000000000 Bohr   0.0
[INPUT] 91 H    238.129744914000   0.000000000000   0.000000000000 AA  450.000000000000   0.000000000000   0.000000000000 Bohr   0.0
[INPUT] 92 H    238.129744914000   0.000000000000   1.058354421840 AA  450.000000000000   0.000000000000   2.000000000000 Bohr   0.0
[INPUT] 93 H    243.421517023200   0.000000000000   0.000000000000 AA  460.000000000000   0.000000000000   0.000000000000 Bohr   0.0
[INPUT] 94 H    243.421517023200   0.000000000000   1.058354421840 AA  460.000000000000   0.000000000000   2.000000000000 Bohr   0.0
[INPUT] 95 H    248.713289132400   0.000000000000   0.000000000000 AA  470.000000000000   0.000000000000   0.000000000000 Bohr   0.0
[INPUT] 96 H    248.713289132400   0.000000000000   1.058354421840 AA  470.000000000000   0.000000000000   2.000000000000 Bohr   0.0
[INPUT] 97 H    254.005061241600   0.000000000000   0.000000000000 AA  480.000000000000   0.000000000000   0.000000000000 Bohr   0.0
[INPUT] 98 H    254.005061241600   0.000000000000   1.058354421840 AA  480.000000000000   0.000000000000   2.000000000000 Bohr   0.0
[INPUT] 99 H    259.296833350800   0.000000000000   0.000000000000 AA  490.000000000000   0.000000000000   0.000000000000 Bohr   0.0
[INPUT]100 H    259.296833350800   0.000000000000   1.058354421840 AA  490.000000000000   0.000000000000   2.000000000000 Bohr   0.0
[INPUT]101 H    264.588605460000   0.000000000000   0.000000000000 AA  500.000000000000   0.000000000000   0.000000000000 Bohr   0.0
[INPUT]102 H    264.588605460000   0.000000000000   1.058354421840 AA  500.000000000000   0.000000000000   2.000000000000 Bohr   0.0
[INPUT]103 H    269.880377569200   0.000000000000   0.000000000000 AA  510.000000000000   0.000000000000   0.000000000000 Bohr   0.0
[INPUT]104 H    269.880377569200   0.000000000000   1.058354421840 AA  510.000000000000   0.000000000000   2.000000000000 Bohr   0.0
[INPUT]105 H    275.172149678400   0.000000000000   0.000000000000 AA  520.000000000000   0.000000000000   0.000000000000 Bohr   0.0
[INPUT]106 H    275.172149678400   0.000000000000   1.058354421840 AA  520.000000000000   0.000000000000   2.000000000000 Bohr   0.0
[INPUT]107 H    280.463921787600   0.000000000000   0.000000000000 AA  530.000000000000   0.000000000000   0.000000000000 Bohr   0.0
[INPUT]108 H    280.463921787600   0.000000000000   1.058354421840 AA  530.000000000000   0.000000000000   2.000000000000 Bohr   0.0
[INPUT]109 H    285.755693896800   0.000000000000   0.000000000000 AA  540.000000000000   0.000000000000   0.000000000000 Bohr   0.0
[INPUT]110 H    285.755693896800   0.000000000000   1.058354421840 AA  540.000000000000   0.000000000000   2.000000000000 Bohr   0.0
[INPUT]111 H    291.047466006000   0.000000000000   0.000000000000 AA  550.000000000000   0.000000000000   0.000000000000 Bohr   0.0
[INPUT]112 H    291.047466006000   0.000000000000   1.058354421840 AA  550.000000000000   0.000000000000   2.000000000000 Bohr   0.0
[INPUT]113 H    296.339238115200   0.000000000000   0.000000000000 AA  560.000000000000   0.000000000000   0.000000000000 Bohr   0.0
[INPUT]114 H    296.339238115200   0.000000000000   1.058354421840 AA  560.000000000000   0.000000000000   2.000000000000 Bohr   0.0
[INPUT]115 H    301.631010224400   0.000000000000   0.000000000000 AA  570.000000000000   0.000000000000   0.000000000000 Bohr   0.0
[INPUT]116 H    301.631010224400   0.000000000000   1.058354421840 AA  570.000000000000   0.000000000000   2.000000000000 Bohr   0.0
[INPUT]117 H    306.922782333600   0.000000000000   0.000000000000 AA  580.000000000000   0.000000000000   0.000000000000 Bohr   0.0
[INPUT]118 H    306.922782333600   0.000000000000   1.058354421840 AA  580.000000000000   0.000000000000   2.000000000000 Bohr   0.0
[INPUT]119 H    312.214554442800   0.000000000000   0.000000000000 AA  590.000000000000   0.000000000000   0.000000000000 Bohr   0.0
[INPUT]120 H    312.214554442800   0.000000000000   1.058354421840 AA  590.000000000000   0.000000000000   2.000000000000 Bohr   0.0
[INPUT]121 H    317.506326552000   0.000000000000   0.000000000000 AA  600.000000000000   0.000000000000   0.000000000000 Bohr   0.0
[INPUT]122 H    317.506326552000   0.000000000000   1.058354421840 AA  600.000000000000   0.000000000000   2.000000000000 Bohr   0.0
[INPUT]123 H    322.798098661200   0.000000000000   0.000000000000 AA  610.000000000000   0.000000000000   0.000000000000 Bohr   0.0
[INPUT]124 H    322.798098661200   0.000000000000   1.058354421840 AA  610.000000000000   0.000000000000   2.000000000000 Bohr   0.0
[INPUT]125 H    328.089870770400   0.000000000000   0.000000000000 AA  620.000000000000   0.000000000000   0.000000000000 Bohr   0.0
[INPUT]126 H    328.089870770400   0.000000000000   1.058354421840 AA  620.000000000000   0.000000000000   2.000000000000 Bohr   0.0
[INPUT]127 H    333.381642879600   0.000000000000   0.000000000000 AA  630.000000000000   0.000000000000   0.000000000000 Bohr   0.0
[INPUT]128 H    333.381642879600   0.000000000000   1.058354421840 AA  630.000000000000   0.000000000000   2.000000000000 Bohr   0.0
[INPUT]129 H    338.673414988800   0.000000000000   0.000000000000 AA  640.000000000000   0.000000000000   0.000000000000 Bohr   0.0
[INPUT]130 H    338.673414988800   0.000000000000   1.058354421840 AA  640.000000000000   0.000000000000   2.000000000000 Bohr   0.0
[INPUT]131 H    343.965187098000   0.000000000000   0.000000000000 AA  650.000000000000   0.000000000000   0.000000000000 Bohr   0.0
[INPUT]132 H    343.965187098000   0.000000000000   1.058354421840 AA  650.000000000000   0.000000000000   2.000000000000 Bohr   0.0
[INPUT]133 H    349.256959207200   0.000000000000   0.000000000000 AA  660.000000000000   0.000000000000   0.000000000000 Bohr   0.0
[INPUT]134 H    349.256959207200   0.000000000000   1.058354421840 AA  660.000000000000   0.000000000000   2.000000000000 Bohr   0.0
[INPUT]135 H    354.548731316400   0.000000000000   0.000000000000 AA  670.000000000000   0.000000000000   0.000000000000 Bohr   0.0
[INPUT]136 H    354.548731316400   0.000000000000   1.058354421840 AA  670.000000000000   0.000000000000   2.000000000000 Bohr   0.0
[INPUT]137 H    359.840503425600   0.000000000000   0.000000000000 AA  680.000000000000   0.000000000000   0.000000000000 Bohr   0.0
[INPUT]138 H    359.840503425600   0.000000000000   1.058354421840 AA  680.000000000000   0.000000000000   2.000000000000 Bohr   0.0
[INPUT]139 H    365.132275534800   0.000000000000   0.000000000000 AA  690.000000000000   0.000000000000   0.000000000000 Bohr   0.0
[INPUT]140 H    365.132275534800   0.000000000000   1.058354421840 AA  690.000000000000   0.000000000000   2.000000000000 Bohr   0.0
[INPUT]141 H    370.424047644000   0.000000000000   0.000000000000 AA  700.000000000000   0.000000000000   0.000000000000 Bohr   0.0
[INPUT]142 H    370.424047644000   0.000000000000   1.058354421840 AA  700.000000000000   0.000000000000   2.000000000000 Bohr   0.0
[INPUT]143 H    375.715819753200   0.000000000000   0.000000000000 AA  710.000000000000   0.000000000000   0.000000000000 Bohr   0.0
[INPUT]144 H    375.715819753200   0.000000000000   1.058354421840 AA  710.000000000000   0.000000000000   2.000000000000 Bohr   0.0
[INPUT]145 H    381.007591862400   0.000000000000   0.000000000000 AA  720.000000000000   0.000000000000   0.000000000000 Bohr   0.0
[INPUT]146 H    381.007591862400   0.000000000000   1.058354421840 AA  720.000000000000   0.000000000000   2.000000000000 Bohr   0.0
[INPUT]147 H    386.299363971600   0.000000000000   0.000000000000 AA  730.000000000000   0.000000000000   0.000000000000 Bohr   0.0
[INPUT]148 H    386.299363971600   0.000000000000   1.058354421840 AA  730.000000000000   0.000000000000   2.000000000000 Bohr   0.0
[INPUT]149 H    391.591136080800   0.000000000000   0.000000000000 AA  740.000000000000   0.000000000000   0.000000000000 Bohr   0.0
[INPUT]150 H    391.591136080800   0.000000000000   1.058354421840 AA  740.000000000000   0.000000000000   2.000000000000 Bohr   0.0
[INPUT]151 H    396.882908190000   0.000000000000   0.000000000000 AA  750.000000000000   0.000000000000   0.000000000000 Bohr   0.0
[INPUT]152 H    396.882908190000   0.000000000000   1.058354421840 AA  750.000000000000   0.000000000000   2.000000000000 Bohr   0.0
[INPUT]153 H    402.174680299200   0.000000000000   0.000000000000 AA  760.000000000000   0.000000000000   0.000000000000 Bohr   0.0
[INPUT]154 H    402.174680299200   0.000000000000   1.058354421840 AA  760.000000000000   0.000000000000   2.000000000000 Bohr   0.0
[INPUT]155 H    407.466452408400   0.000000000000   0.000000000000 AA  770.000000000000   0.000000000000   0.000000000000 Bohr   0.0
[INPUT]156 H    407.466452408400   0.000000000000   1.058354421840 AA  770.000000000000   0.000000000000   2.000000000000 Bohr   0.0
[INPUT]157 H    412.758224517600   0.000000000000   0.000000000000 AA  780.000000000000   0.000000000000   0.000000000000 Bohr   0.0
[INPUT]158 H    412.758224517600   0.000000000000   1.058354421840 AA  780.000000000000   0.000000000000   2.000000000000 Bohr   0.0
[INPUT]159 H    418.049996626800   0.000000000000   0.000000000000 AA  790.000000000000   0.000000000000   0.000000000000 Bohr   0.0
[INPUT]160 H    418.049996626800   0.000000000000   1.058354421840 AA  790.000000000000   0.000000000000   2.000000000000 Bohr   0.0
[INPUT]161 H    423.341768736000   0.000000000000   0.000000000000 AA  800.000000000000   0.000000000000   0.000000000000 Bohr   0.0
[INPUT]162 H    423.341768736000   0.000000000000   1.058354421840 AA  800.000000000000   0.000000000000   2.000000000000 Bohr   0.0
[INPUT]163 H    428.633540845200   0.000000000000   0.000000000000 AA  810.000000000000   0.000000000000   0.000000000000 Bohr   0.0
[INPUT]164 H    428.633540845200   0.000000000000   1.058354421840 AA  810.000000000000   0.000000000000   2.000000000000 Bohr   0.0
[INPUT]165 H    433.925312954400   0.000000000000   0.000000000000 AA  820.000000000000   0.000000000000   0.000000000000 Bohr   0.0
[INPUT]166 H    433.925312954400   0.000000000000   1.058354421840 AA  820.000000000000   0.000000000000   2.000000000000 Bohr   0.0
[INPUT]167 H    439.217085063600   0.000000000000   0.000000000000 AA  830.000000000000   0.000000000000   0.000000000000 Bohr   0.0
[INPUT]168 H    439.217085063600   0.000000000000   1.058354421840 AA  830.000000000000   0.000000000000   2.000000000000 Bohr   0.0
[INPUT]169 H    444.508857172800   0.000000000000   0.000000000000 AA  840.000000000000   0.000000000000   0.000000000000 Bohr   0.0
[INPUT]170 H    444.508857172800   0.000000000000   1.058354421840 AA  840.000000000000   0.000000000000   2.000000000000 Bohr   0.0
[INPUT]171 H    449.800629282000   0.000000000000   0.000000000000 AA  850.000000000000   0.000000000000   0.000000000000 Bohr   0.0
[INPUT]172 H    449.800629282000   0.000000000000   1.058354421840 AA  850.000000000000   0.000000000000   2.000000000000 Bohr   0.0
[INPUT]173 H    455.092401391200   0.000000000000   0.000000000000 AA  860.000000000000   0.000000000000   0.000000000000 Bohr   0.0
[INPUT]174 H    455.092401391200   0.000000000000   1.058354421840 AA  860.000000000000   0.000000000000   2.000000000000 Bohr   0.0
[INPUT]175 H    460.384173500400   0.000000000000   0.000000000000 AA  870.000000000000   0.000000000000   0.000000000000 Bohr   0.0
[INPUT]176 H    460.384173500400   0.000000000000   1.058354421840 AA  870.000000000000   0.000000000000   2.000000000000 Bohr   0.0
[INPUT]177 H    465.675945609600   0.000000000000   0.000000000000 AA  880.000000000000   0.000000000000   0.000000000000 Bohr   0.0
[INPUT]178 H    465.675945609600   0.000000000000   1.058354421840 AA  880.000000000000   0.000000000000   2.000000000000 Bohr   0.0
[INPUT]179 H    470.967717718800   0.000000000000   0.000000000000 AA  890.000000000000   0.000000000000   0.000000000000 Bohr   0.0
[INPUT]180 H    470.967717718800   0.000000000000   1.058354421840 AA  890.000000000000   0.000000000000   2.000000000000 Bohr   0.0
[INPUT]181 H    476.259489828000   0.000000000000   0.000000000000 AA  900.000000000000   0.000000000000   0.000000000000 Bohr   0.0
[INPUT]182 H    476.259489828000   0.000000000000   1.058354421840 AA  900.000000000000   0.000000000000   2.000000000000 Bohr   0.0
[INPUT]183 H    481.551261937200   0.000000000000   0.000000000000 AA  910.000000000000   0.000000000000   0.000000000000 Bohr   0.0
[INPUT]184 H    481.551261937200   0.000000000000   1.058354421840 AA  910.000000000000   0.000000000000   2.000000000000 Bohr   0.0
[INPUT]185 H    486.843034046400   0.000000000000   0.000000000000 AA  920.000000000000   0.000000000000   0.000000000000 Bohr   0.0
[INPUT]186 H    486.843034046400   0.000000000000   1.058354421840 AA  920.000000000000   0.000000000000   2.000000000000 Bohr   0.0
[INPUT]187 H    492.134806155600   0.000000000000   0.000000000000 AA  930.000000000000   0.000000000000   0.000000000000 Bohr   0.0
[INPUT]188 H    492.134806155600   0.000000000000   1.058354421840 AA  930.000000000000   0.000000000000   2.000000000000 Bohr   0.0
[INPUT]189 H    497.426578264800   0.000000000000   0.000000000000 AA  940.000000000000   0.000000000000   0.000000000000 Bohr   0.0
[INPUT]190 H    497.426578264800   0.000000000000   1.058354421840 AA  940.000000000000   0.000000000000   2.000000000000 Bohr   0.0
[INPUT]191 H    502.718350374000   0.000000000000   0.000000000000 AA  950.000000000000   0.000000000000   0.000000000000 Bohr   0.0
[INPUT]192 H    502.718350374000   0.000000000000   1.058354421840 AA  950.000000000000   0.000000000000   2.000000000000 Bohr   0.0
[INPUT]193 H    508.010122483200   0.000000000000   0.000000000000 AA  960.000000000000   0.000000000000   0.000000000000 Bohr   0.0
[INPUT]194 H    508.010122483200   0.000000000000   1.058354421840 AA  960.000000000000   0.000000000000   2.000000000000 Bohr   0.0
[INPUT]195 H    513.301894592400   0.000000000000   0.000000000000 AA  970.000000000000   0.000000000000   0.000000000000 Bohr   0.0
[INPUT]196 H    513.301894592400   0.000000000000   1.058354421840 AA  970.000000000000   0.000000000000   2.000000000000 Bohr   0.0
[INPUT]197 H    518.593666701600   0.000000000000   0.000000000000 AA  980.000000000000   0.000000000000   0.000000000000 Bohr   0.0
[INPUT]198 H    518.593666701600   0.000000000000   1.058354421840 AA  980.000000000000   0.000000000000   2.000000000000 Bohr   0.0
[INPUT]199 H    523.885438810800   0.000000000000   0.000000000000 AA  990.000000000000   0.000000000000   0.000000000000 Bohr   0.0
[INPUT]200 H    523.885438810800   0.000000000000   1.058354421840 AA  990.000000000000   0.000000000000   2.000000000000 Bohr   0.0

nuclear repulsion = 217.032765070849
number of shells = 200
number of NR pGTOs = 1200
number of NR cGTOs = 200
basis = sto-6g
ecp = {}
CPU time:         2.52


******** <class 'pyscf.scf.hf.RHF'> ********
method = RHF
initial guess = minao
damping factor = 0
level_shift factor = 0.5
DIIS = <class 'pyscf.scf.diis.CDIIS'>
diis_start_cycle = 1
diis_space = 8
diis_damp = 0
SCF conv_tol = 1e-09
SCF conv_tol_grad = None
SCF max_cycles = 50
direct_scf = True
direct_scf_tol = 1e-13
chkfile to save SCF result = mf.chk
max_memory 4000 MB (current use 134 MB)
Set gradient conv threshold to 3.16228e-05
Initial guess from minao.
init E= -68.3957386645911
  HOMO = -0.273783373385734  LUMO = 0.681111651657639
cycle= 1 E= -105.642414351358  delta_E= -37.2  |g|= 2.13e-14  |ddm|= 9.14
  HOMO = -0.469248864810869  LUMO = 0.915146864855116
cycle= 2 E= -105.642414351358  delta_E= -1.14e-13  |g|= 1.57e-14  |ddm|= 4.69e-14
  HOMO = -0.469248864810868  LUMO = 0.415146864855117
Extra cycle  E= -105.642414351358  delta_E= 1.14e-13  |g|= 1.61e-14  |ddm|= 5.13e-14
converged SCF energy = -105.642414351358
<class 'pyscf.scf.hf.RHF'> wavefunction is stable in the internal stability analysis




******** <class 'pyscf.soscf.newton_ah.SecondOrderRHF'> ********
method = SecondOrderRHF
initial guess = minao
damping factor = 0
level_shift factor = 0.5
DIIS = <class 'pyscf.scf.diis.CDIIS'>
diis_start_cycle = 1
diis_space = 8
diis_damp = 0
SCF conv_tol = 1e-09
SCF conv_tol_grad = None
SCF max_cycles = 50
direct_scf = True
direct_scf_tol = 1e-13
chkfile to save SCF result = mf.chk
max_memory 4000 MB (current use 1837 MB)
******** <class 'pyscf.scf.hf.RHF'> Newton solver flags ********
SCF tol = 1e-09
conv_tol_grad = None
max. SCF cycles = 50
direct_scf = True
direct_scf_tol = 1e-13
chkfile to save SCF result = mf.chk
max_cycle_inner = 12
max_stepsize = 0.05
ah_start_tol = 1e+09
ah_level_shift = 0
ah_conv_tol = 1e-12
ah_lindep = 1e-14
ah_start_cycle = 1
ah_max_cycle = 40
ah_grad_trust_region = 2.5
kf_interval = 4
kf_trust_region = 5
canonicalization = True
max_memory 4000 MB (current use 1837 MB)
Set conv_tol_grad to 3.16228e-05
  HOMO = -0.469248864810869  LUMO = 0.415146864855115
Initial guess E= -105.642414351358  |g|= 1.81778e-14
macro= 0  E= -105.642414351358  delta_E= 0  |g|= 1.81443e-14  1 KF 2 JK
Canonicalize SCF orbitals
macro X = 1  E=-105.642414351358  |g|= 1.81443e-14  total 2 KF 4 JK
converged SCF energy = -105.642414351358
<class 'pyscf.soscf.newton_ah.SecondOrderRHF'> wavefunction is stable in the internal stability analysis




******** <class 'pyscf.soscf.newton_ah.SecondOrderRHF'> ********
method = SecondOrderRHF
initial guess = minao
damping factor = 0
level_shift factor = 0.5
DIIS = <class 'pyscf.scf.diis.CDIIS'>
diis_start_cycle = 1
diis_space = 8
diis_damp = 0
SCF conv_tol = 1e-09
SCF conv_tol_grad = None
SCF max_cycles = 50
direct_scf = True
direct_scf_tol = 1e-13
chkfile to save SCF result = mf.chk
max_memory 4000 MB (current use 1837 MB)
******** <class 'pyscf.scf.hf.RHF'> Newton solver flags ********
SCF tol = 1e-09
conv_tol_grad = None
max. SCF cycles = 50
direct_scf = True
direct_scf_tol = 1e-13
chkfile to save SCF result = mf.chk
max_cycle_inner = 12
max_stepsize = 0.05
ah_start_tol = 1e+09
ah_level_shift = 0
ah_conv_tol = 1e-12
ah_lindep = 1e-14
ah_start_cycle = 1
ah_max_cycle = 40
ah_grad_trust_region = 2.5
kf_interval = 4
kf_trust_region = 5
canonicalization = True
max_memory 4000 MB (current use 1837 MB)
Set conv_tol_grad to 3.16228e-05
  HOMO = -0.469248864810867  LUMO = 0.415146864855115
Initial guess E= -105.642414351358  |g|= 1.6917e-14
macro= 0  E= -105.642414351358  delta_E= 0  |g|= 1.68866e-14  1 KF 2 JK
Canonicalize SCF orbitals
macro X = 1  E=-105.642414351358  |g|= 1.68866e-14  total 2 KF 4 JK
converged SCF energy = -105.642414351358
<class 'pyscf.soscf.newton_ah.SecondOrderRHF'> wavefunction is stable in the internal stability analysis
**** SCF Summaries ****
Total Energy =                        -105.642414351357928
Nuclear Repulsion Energy =             217.032765070848626
One-electron Energy =                 -551.454077198157506
Two-electron Energy =                  228.778897775950952
**** MO energy ****
MO #1   energy= -0.469817769875451 occ= 2
MO #2   energy= -0.469817769875448 occ= 2
MO #3   energy= -0.469698235557689 occ= 2
MO #4   energy= -0.469698165557762 occ= 2
MO #5   energy= -0.469697643457752 occ= 2
MO #6   energy= -0.469696950389567 occ= 2
MO #7   energy= -0.469696009749592 occ= 2
MO #8   energy= -0.469694828791445 occ= 2
MO #9   energy= -0.469693412044701 occ= 2
MO #10  energy= -0.46969176326179  occ= 2
MO #11  energy= -0.469689885891411 occ= 2
MO #12  energy= -0.469687783281214 occ= 2
MO #13  energy= -0.4696854587828   occ= 2
MO #14  energy= -0.469682915811137 occ= 2
MO #15  energy= -0.46968015787978  occ= 2
MO #16  energy= -0.469677188622123 occ= 2
MO #17  energy= -0.469674011804193 occ= 2
MO #18  energy= -0.469670631332071 occ= 2
MO #19  energy= -0.469667051255835 occ= 2
MO #20  energy= -0.469663275771192 occ= 2
MO #21  energy= -0.469659309219546 occ= 2
MO #22  energy= -0.469655156086979 occ= 2
MO #23  energy= -0.469650821002498 occ= 2
MO #24  energy= -0.469646308735717 occ= 2
MO #25  energy= -0.469641624194163 occ= 2
MO #26  energy= -0.469636772420255 occ= 2
MO #27  energy= -0.469631758588047 occ= 2
MO #28  energy= -0.469626587999759 occ= 2
MO #29  energy= -0.469621266082121 occ= 2
MO #30  energy= -0.469615798382547 occ= 2
MO #31  energy= -0.469610190565147 occ= 2
MO #32  energy= -0.469604448406584 occ= 2
MO #33  energy= -0.469598577791774 occ= 2
MO #34  energy= -0.469592584709433 occ= 2
MO #35  energy= -0.469586475247493 occ= 2
MO #36  energy= -0.469580255588344 occ= 2
MO #37  energy= -0.469573932003961 occ= 2
MO #38  energy= -0.469567510850874 occ= 2
MO #39  energy= -0.469560998565021 occ= 2
MO #40  energy= -0.469554401656457 occ= 2
MO #41  energy= -0.469547726703954 occ= 2
MO #42  energy= -0.469540980349477 occ= 2
MO #43  energy= -0.469534169292554 occ= 2
MO #44  energy= -0.469527300284549 occ= 2
MO #45  energy= -0.469520380122827 occ= 2
MO #46  energy= -0.469513415644846 occ= 2
MO #47  energy= -0.469506413722165 occ= 2
MO #48  energy= -0.469499381254377 occ= 2
MO #49  energy= -0.469492325162985 occ= 2
MO #50  energy= -0.469485252385216 occ= 2
MO #51  energy= -0.469478169867795 occ= 2
MO #52  energy= -0.469471084560671 occ= 2
MO #53  energy= -0.469464003410725 occ= 2
MO #54  energy= -0.469456933355435 occ= 2
MO #55  energy= -0.469449881316548 occ= 2
MO #56  energy= -0.469442854193716 occ= 2
MO #57  energy= -0.469435858858169 occ= 2
MO #58  energy= -0.46942890214636  occ= 2
MO #59  energy= -0.469421990853643 occ= 2
MO #60  energy= -0.469415131727973 occ= 2
MO #61  energy= -0.46940833146363  occ= 2
MO #62  energy= -0.469401596694983 occ= 2
MO #63  energy= -0.469394933990301 occ= 2
MO #64  energy= -0.469388349845608 occ= 2
MO #65  energy= -0.469381850678598 occ= 2
MO #66  energy= -0.469375442822627 occ= 2
MO #67  energy= -0.469369132520755 occ= 2
MO #68  energy= -0.469362925919885 occ= 2
MO #69  energy= -0.469356829064978 occ= 2
MO #70  energy= -0.469350847893356 occ= 2
MO #71  energy= -0.469344988229114 occ= 2
MO #72  energy= -0.469339255777626 occ= 2
MO #73  energy= -0.469333656120158 occ= 2
MO #74  energy= -0.469328194708611 occ= 2
MO #75  energy= -0.469322876860369 occ= 2
MO #76  energy= -0.469317707753286 occ= 2
MO #77  energy= -0.469312692420798 occ= 2
MO #78  energy= -0.469307835747179 occ= 2
MO #79  energy= -0.469303142462941 occ= 2
MO #80  energy= -0.469298617140376 occ= 2
MO #81  energy= -0.469294264189267 occ= 2
MO #82  energy= -0.469290087852742 occ= 2
MO #83  energy= -0.469286092203309 occ= 2
MO #84  energy= -0.469282281139054 occ= 2
MO #85  energy= -0.469278658380019 occ= 2
MO #86  energy= -0.469275227464764 occ= 2
MO #87  energy= -0.469271991747117 occ= 2
MO #88  energy= -0.46926895439312  occ= 2
MO #89  energy= -0.469266118378196 occ= 2
MO #90  energy= -0.469263486484508 occ= 2
MO #91  energy= -0.469261061298588 occ= 2
MO #92  energy= -0.4692588452092   occ= 2
MO #93  energy= -0.469256840405521 occ= 2
MO #94  energy= -0.46925504887572  occ= 2
MO #95  energy= -0.469253472406078 occ= 2
MO #96  energy= -0.469252112581107 occ= 2
MO #97  energy= -0.46925097078571  occ= 2
MO #98  energy= -0.469250048212924 occ= 2
MO #99  energy= -0.469249345891185 occ= 2
MO #100 energy= -0.469248864810866 occ= 2
MO #101 energy= 0.415146864855115  occ= 0
MO #102 energy= 0.415146864855123  occ= 0
MO #103 energy= 0.415293854307793  occ= 0
MO #104 energy= 0.41529385524972   occ= 0
MO #105 energy= 0.415294854679641  occ= 0
MO #106 energy= 0.415295237584938  occ= 0
MO #107 energy= 0.415295853243995  occ= 0
MO #108 energy= 0.415296661449776  occ= 0
MO #109 energy= 0.415297648999769  occ= 0
MO #110 energy= 0.415298809441398  occ= 0
MO #111 energy= 0.4153001386376    occ= 0
MO #112 energy= 0.415301633366726  occ= 0
MO #113 energy= 0.415303290789951  occ= 0
MO #114 energy= 0.415305108217616  occ= 0
MO #115 energy= 0.415307082994759  occ= 0
MO #116 energy= 0.415309212440179  occ= 0
MO #117 energy= 0.41531149381198   occ= 0
MO #118 energy= 0.415313924287325  occ= 0
MO #119 energy= 0.415316500950347  occ= 0
MO #120 energy= 0.415319220785008  occ= 0
MO #121 energy= 0.41532208067112   occ= 0
MO #122 energy= 0.415325077382447  occ= 0
MO #123 energy= 0.415328207586245  occ= 0
MO #124 energy= 0.415331467843811  occ= 0
MO #125 energy= 0.415334854611767  occ= 0
MO #126 energy= 0.415338364243888  occ= 0
MO #127 energy= 0.415341992993347  occ= 0
MO #128 energy= 0.41534573701528   occ= 0
MO #129 energy= 0.415349592369604  occ= 0
MO #130 energy= 0.415353555024053  occ= 0
MO #131 energy= 0.415357620857378  occ= 0
MO #132 energy= 0.415361785662698  occ= 0
MO #133 energy= 0.415366045150983  occ= 0
MO #134 energy= 0.415370394954644  occ= 0
MO #135 energy= 0.415374830631233  occ= 0
MO #136 energy= 0.415379347667227  occ= 0
MO #137 energy= 0.41538394148191   occ= 0
MO #138 energy= 0.415388607431324  occ= 0
MO #139 energy= 0.4153933408123    occ= 0
MO #140 energy= 0.415398136866561  occ= 0
MO #141 energy= 0.415402990784884  occ= 0
MO #142 energy= 0.415407897711337  occ= 0
MO #143 energy= 0.415412852747549  occ= 0
MO #144 energy= 0.415417850957065  occ= 0
MO #145 energy= 0.415422887369719  occ= 0
MO #146 energy= 0.41542795698608   occ= 0
MO #147 energy= 0.415433054781914  occ= 0
MO #148 energy= 0.415438175712697  occ= 0
MO #149 energy= 0.41544331471816   occ= 0
MO #150 energy= 0.415448466726851  occ= 0
MO #151 energy= 0.415453626660736  occ= 0
MO #152 energy= 0.415458789439795  occ= 0
MO #153 energy= 0.415463949986655  occ= 0
MO #154 energy= 0.415469103231223  occ= 0
MO #155 energy= 0.415474244115311  occ= 0
MO #156 energy= 0.41547936759728   occ= 0
MO #157 energy= 0.415484468656662  occ= 0
MO #158 energy= 0.415489542298784  occ= 0
MO #159 energy= 0.415494583559364  occ= 0
MO #160 energy= 0.415499587509096  occ= 0
MO #161 energy= 0.415504549258208  occ= 0
MO #162 energy= 0.415509463960986  occ= 0
MO #163 energy= 0.415514326820266  occ= 0
MO #164 energy= 0.415519133091888  occ= 0
MO #165 energy= 0.415523878089105  occ= 0
MO #166 energy= 0.415528557186941  occ= 0
MO #167 energy= 0.415533165826495  occ= 0
MO #168 energy= 0.415537699519196  occ= 0
MO #169 energy= 0.415542153850982  occ= 0
MO #170 energy= 0.415546524486425  occ= 0
MO #171 energy= 0.415550807172773  occ= 0
MO #172 energy= 0.41555499774393   occ= 0
MO #173 energy= 0.415559092124345  occ= 0
MO #174 energy= 0.415563086332824  occ= 0
MO #175 energy= 0.415566976486247  occ= 0
MO #176 energy= 0.415570758803209  occ= 0
MO #177 energy= 0.415574429607548  occ= 0
MO #178 energy= 0.41557798533178   occ= 0
MO #179 energy= 0.415581422520435  occ= 0
MO #180 energy= 0.415584737833289  occ= 0
MO #181 energy= 0.415587928048468  occ= 0
MO #182 energy= 0.415590990065461  occ= 0
MO #183 energy= 0.415593920908     occ= 0
MO #184 energy= 0.415596717726825  occ= 0
MO #185 energy= 0.415599377802323  occ= 0
MO #186 energy= 0.415601898547043  occ= 0
MO #187 energy= 0.415604277508061  occ= 0
MO #188 energy= 0.415606512369236  occ= 0
MO #189 energy= 0.415608600953294  occ= 0
MO #190 energy= 0.415610541223776  occ= 0
MO #191 energy= 0.415612331286809  occ= 0
MO #192 energy= 0.415613969392705  occ= 0
MO #193 energy= 0.415615453937328  occ= 0
MO #194 energy= 0.41561678346316   occ= 0
MO #195 energy= 0.415617956659933  occ= 0
MO #196 energy= 0.415618972364419  occ= 0
MO #197 energy= 0.415619829558428  occ= 0
MO #198 energy= 0.415620527361931  occ= 0
MO #199 energy= 0.415621065009705  occ= 0
MO #200 energy= 0.415621441750974  occ= 0
 ** Mulliken pop on meta-lowdin orthogonal AOs  **
 ** Mulliken pop  **
pop of  0 H 1s            1.00000
pop of  1 H 1s            1.00000
pop of  2 H 1s            1.00000
pop of  3 H 1s            1.00000
pop of  4 H 1s            1.00000
pop of  5 H 1s            1.00000
pop of  6 H 1s            1.00000
pop of  7 H 1s            1.00000
pop of  8 H 1s            1.00000
pop of  9 H 1s            1.00000
pop of  10 H 1s           1.00000
pop of  11 H 1s           1.00000
pop of  12 H 1s           1.00000
pop of  13 H 1s           1.00000
pop of  14 H 1s           1.00000
pop of  15 H 1s           1.00000
pop of  16 H 1s           1.00000
pop of  17 H 1s           1.00000
pop of  18 H 1s           1.00000
pop of  19 H 1s           1.00000
pop of  20 H 1s           1.00000
pop of  21 H 1s           1.00000
pop of  22 H 1s           1.00000
pop of  23 H 1s           1.00000
pop of  24 H 1s           1.00000
pop of  25 H 1s           1.00000
pop of  26 H 1s           1.00000
pop of  27 H 1s           1.00000
pop of  28 H 1s           1.00000
pop of  29 H 1s           1.00000
pop of  30 H 1s           1.00000
pop of  31 H 1s           1.00000
pop of  32 H 1s           1.00000
pop of  33 H 1s           1.00000
pop of  34 H 1s           1.00000
pop of  35 H 1s           1.00000
pop of  36 H 1s           1.00000
pop of  37 H 1s           1.00000
pop of  38 H 1s           1.00000
pop of  39 H 1s           1.00000
pop of  40 H 1s           1.00000
pop of  41 H 1s           1.00000
pop of  42 H 1s           1.00000
pop of  43 H 1s           1.00000
pop of  44 H 1s           1.00000
pop of  45 H 1s           1.00000
pop of  46 H 1s           1.00000
pop of  47 H 1s           1.00000
pop of  48 H 1s           1.00000
pop of  49 H 1s           1.00000
pop of  50 H 1s           1.00000
pop of  51 H 1s           1.00000
pop of  52 H 1s           1.00000
pop of  53 H 1s           1.00000
pop of  54 H 1s           1.00000
pop of  55 H 1s           1.00000
pop of  56 H 1s           1.00000
pop of  57 H 1s           1.00000
pop of  58 H 1s           1.00000
pop of  59 H 1s           1.00000
pop of  60 H 1s           1.00000
pop of  61 H 1s           1.00000
pop of  62 H 1s           1.00000
pop of  63 H 1s           1.00000
pop of  64 H 1s           1.00000
pop of  65 H 1s           1.00000
pop of  66 H 1s           1.00000
pop of  67 H 1s           1.00000
pop of  68 H 1s           1.00000
pop of  69 H 1s           1.00000
pop of  70 H 1s           1.00000
pop of  71 H 1s           1.00000
pop of  72 H 1s           1.00000
pop of  73 H 1s           1.00000
pop of  74 H 1s           1.00000
pop of  75 H 1s           1.00000
pop of  76 H 1s           1.00000
pop of  77 H 1s           1.00000
pop of  78 H 1s           1.00000
pop of  79 H 1s           1.00000
pop of  80 H 1s           1.00000
pop of  81 H 1s           1.00000
pop of  82 H 1s           1.00000
pop of  83 H 1s           1.00000
pop of  84 H 1s           1.00000
pop of  85 H 1s           1.00000
pop of  86 H 1s           1.00000
pop of  87 H 1s           1.00000
pop of  88 H 1s           1.00000
pop of  89 H 1s           1.00000
pop of  90 H 1s           1.00000
pop of  91 H 1s           1.00000
pop of  92 H 1s           1.00000
pop of  93 H 1s           1.00000
pop of  94 H 1s           1.00000
pop of  95 H 1s           1.00000
pop of  96 H 1s           1.00000
pop of  97 H 1s           1.00000
pop of  98 H 1s           1.00000
pop of  99 H 1s           1.00000
pop of  100 H 1s          1.00000
pop of  101 H 1s          1.00000
pop of  102 H 1s          1.00000
pop of  103 H 1s          1.00000
pop of  104 H 1s          1.00000
pop of  105 H 1s          1.00000
pop of  106 H 1s          1.00000
pop of  107 H 1s          1.00000
pop of  108 H 1s          1.00000
pop of  109 H 1s          1.00000
pop of  110 H 1s          1.00000
pop of  111 H 1s          1.00000
pop of  112 H 1s          1.00000
pop of  113 H 1s          1.00000
pop of  114 H 1s          1.00000
pop of  115 H 1s          1.00000
pop of  116 H 1s          1.00000
pop of  117 H 1s          1.00000
pop of  118 H 1s          1.00000
pop of  119 H 1s          1.00000
pop of  120 H 1s          1.00000
pop of  121 H 1s          1.00000
pop of  122 H 1s          1.00000
pop of  123 H 1s          1.00000
pop of  124 H 1s          1.00000
pop of  125 H 1s          1.00000
pop of  126 H 1s          1.00000
pop of  127 H 1s          1.00000
pop of  128 H 1s          1.00000
pop of  129 H 1s          1.00000
pop of  130 H 1s          1.00000
pop of  131 H 1s          1.00000
pop of  132 H 1s          1.00000
pop of  133 H 1s          1.00000
pop of  134 H 1s          1.00000
pop of  135 H 1s          1.00000
pop of  136 H 1s          1.00000
pop of  137 H 1s          1.00000
pop of  138 H 1s          1.00000
pop of  139 H 1s          1.00000
pop of  140 H 1s          1.00000
pop of  141 H 1s          1.00000
pop of  142 H 1s          1.00000
pop of  143 H 1s          1.00000
pop of  144 H 1s          1.00000
pop of  145 H 1s          1.00000
pop of  146 H 1s          1.00000
pop of  147 H 1s          1.00000
pop of  148 H 1s          1.00000
pop of  149 H 1s          1.00000
pop of  150 H 1s          1.00000
pop of  151 H 1s          1.00000
pop of  152 H 1s          1.00000
pop of  153 H 1s          1.00000
pop of  154 H 1s          1.00000
pop of  155 H 1s          1.00000
pop of  156 H 1s          1.00000
pop of  157 H 1s          1.00000
pop of  158 H 1s          1.00000
pop of  159 H 1s          1.00000
pop of  160 H 1s          1.00000
pop of  161 H 1s          1.00000
pop of  162 H 1s          1.00000
pop of  163 H 1s          1.00000
pop of  164 H 1s          1.00000
pop of  165 H 1s          1.00000
pop of  166 H 1s          1.00000
pop of  167 H 1s          1.00000
pop of  168 H 1s          1.00000
pop of  169 H 1s          1.00000
pop of  170 H 1s          1.00000
pop of  171 H 1s          1.00000
pop of  172 H 1s          1.00000
pop of  173 H 1s          1.00000
pop of  174 H 1s          1.00000
pop of  175 H 1s          1.00000
pop of  176 H 1s          1.00000
pop of  177 H 1s          1.00000
pop of  178 H 1s          1.00000
pop of  179 H 1s          1.00000
pop of  180 H 1s          1.00000
pop of  181 H 1s          1.00000
pop of  182 H 1s          1.00000
pop of  183 H 1s          1.00000
pop of  184 H 1s          1.00000
pop of  185 H 1s          1.00000
pop of  186 H 1s          1.00000
pop of  187 H 1s          1.00000
pop of  188 H 1s          1.00000
pop of  189 H 1s          1.00000
pop of  190 H 1s          1.00000
pop of  191 H 1s          1.00000
pop of  192 H 1s          1.00000
pop of  193 H 1s          1.00000
pop of  194 H 1s          1.00000
pop of  195 H 1s          1.00000
pop of  196 H 1s          1.00000
pop of  197 H 1s          1.00000
pop of  198 H 1s          1.00000
pop of  199 H 1s          1.00000
 ** Mulliken atomic charges  **
charge of    0H =     -0.00000
charge of    1H =     -0.00000
charge of    2H =     -0.00000
charge of    3H =     -0.00000
charge of    4H =     -0.00000
charge of    5H =     -0.00000
charge of    6H =     -0.00000
charge of    7H =     -0.00000
charge of    8H =     -0.00000
charge of    9H =     -0.00000
charge of   10H =     -0.00000
charge of   11H =     -0.00000
charge of   12H =      0.00000
charge of   13H =      0.00000
charge of   14H =      0.00000
charge of   15H =      0.00000
charge of   16H =     -0.00000
charge of   17H =     -0.00000
charge of   18H =     -0.00000
charge of   19H =     -0.00000
charge of   20H =     -0.00000
charge of   21H =     -0.00000
charge of   22H =      0.00000
charge of   23H =     -0.00000
charge of   24H =     -0.00000
charge of   25H =     -0.00000
charge of   26H =     -0.00000
charge of   27H =     -0.00000
charge of   28H =     -0.00000
charge of   29H =     -0.00000
charge of   30H =     -0.00000
charge of   31H =     -0.00000
charge of   32H =      0.00000
charge of   33H =      0.00000
charge of   34H =      0.00000
charge of   35H =      0.00000
charge of   36H =      0.00000
charge of   37H =      0.00000
charge of   38H =      0.00000
charge of   39H =      0.00000
charge of   40H =      0.00000
charge of   41H =      0.00000
charge of   42H =      0.00000
charge of   43H =      0.00000
charge of   44H =      0.00000
charge of   45H =      0.00000
charge of   46H =      0.00000
charge of   47H =      0.00000
charge of   48H =      0.00000
charge of   49H =      0.00000
charge of   50H =      0.00000
charge of   51H =     -0.00000
charge of   52H =     -0.00000
charge of   53H =     -0.00000
charge of   54H =     -0.00000
charge of   55H =     -0.00000
charge of   56H =     -0.00000
charge of   57H =     -0.00000
charge of   58H =     -0.00000
charge of   59H =     -0.00000
charge of   60H =     -0.00000
charge of   61H =     -0.00000
charge of   62H =     -0.00000
charge of   63H =     -0.00000
charge of   64H =     -0.00000
charge of   65H =     -0.00000
charge of   66H =     -0.00000
charge of   67H =     -0.00000
charge of   68H =     -0.00000
charge of   69H =     -0.00000
charge of   70H =     -0.00000
charge of   71H =     -0.00000
charge of   72H =      0.00000
charge of   73H =      0.00000
charge of   74H =      0.00000
charge of   75H =      0.00000
charge of   76H =      0.00000
charge of   77H =     -0.00000
charge of   78H =     -0.00000
charge of   79H =     -0.00000
charge of   80H =     -0.00000
charge of   81H =     -0.00000
charge of   82H =     -0.00000
charge of   83H =     -0.00000
charge of   84H =      0.00000
charge of   85H =     -0.00000
charge of   86H =      0.00000
charge of   87H =      0.00000
charge of   88H =     -0.00000
charge of   89H =     -0.00000
charge of   90H =      0.00000
charge of   91H =      0.00000
charge of   92H =      0.00000
charge of   93H =      0.00000
charge of   94H =      0.00000
charge of   95H =      0.00000
charge of   96H =      0.00000
charge of   97H =      0.00000
charge of   98H =      0.00000
charge of   99H =      0.00000
charge of  100H =      0.00000
charge of  101H =      0.00000
charge of  102H =      0.00000
charge of  103H =      0.00000
charge of  104H =      0.00000
charge of  105H =      0.00000
charge of  106H =      0.00000
charge of  107H =      0.00000
charge of  108H =      0.00000
charge of  109H =      0.00000
charge of  110H =      0.00000
charge of  111H =      0.00000
charge of  112H =      0.00000
charge of  113H =      0.00000
charge of  114H =      0.00000
charge of  115H =      0.00000
charge of  116H =      0.00000
charge of  117H =      0.00000
charge of  118H =      0.00000
charge of  119H =      0.00000
charge of  120H =      0.00000
charge of  121H =      0.00000
charge of  122H =      0.00000
charge of  123H =      0.00000
charge of  124H =     -0.00000
charge of  125H =     -0.00000
charge of  126H =     -0.00000
charge of  127H =     -0.00000
charge of  128H =      0.00000
charge of  129H =      0.00000
charge of  130H =      0.00000
charge of  131H =      0.00000
charge of  132H =      0.00000
charge of  133H =      0.00000
charge of  134H =      0.00000
charge of  135H =     -0.00000
charge of  136H =      0.00000
charge of  137H =     -0.00000
charge of  138H =      0.00000
charge of  139H =      0.00000
charge of  140H =      0.00000
charge of  141H =     -0.00000
charge of  142H =      0.00000
charge of  143H =      0.00000
charge of  144H =     -0.00000
charge of  145H =     -0.00000
charge of  146H =     -0.00000
charge of  147H =     -0.00000
charge of  148H =     -0.00000
charge of  149H =     -0.00000
charge of  150H =     -0.00000
charge of  151H =     -0.00000
charge of  152H =     -0.00000
charge of  153H =     -0.00000
charge of  154H =     -0.00000
charge of  155H =     -0.00000
charge of  156H =     -0.00000
charge of  157H =     -0.00000
charge of  158H =     -0.00000
charge of  159H =     -0.00000
charge of  160H =     -0.00000
charge of  161H =     -0.00000
charge of  162H =     -0.00000
charge of  163H =     -0.00000
charge of  164H =     -0.00000
charge of  165H =     -0.00000
charge of  166H =      0.00000
charge of  167H =     -0.00000
charge of  168H =     -0.00000
charge of  169H =     -0.00000
charge of  170H =      0.00000
charge of  171H =      0.00000
charge of  172H =      0.00000
charge of  173H =      0.00000
charge of  174H =      0.00000
charge of  175H =      0.00000
charge of  176H =      0.00000
charge of  177H =      0.00000
charge of  178H =      0.00000
charge of  179H =      0.00000
charge of  180H =      0.00000
charge of  181H =      0.00000
charge of  182H =      0.00000
charge of  183H =     -0.00000
charge of  184H =      0.00000
charge of  185H =      0.00000
charge of  186H =      0.00000
charge of  187H =      0.00000
charge of  188H =      0.00000
charge of  189H =      0.00000
charge of  190H =      0.00000
charge of  191H =      0.00000
charge of  192H =      0.00000
charge of  193H =      0.00000
charge of  194H =      0.00000
charge of  195H =      0.00000
charge of  196H =      0.00000
charge of  197H =     -0.00000
charge of  198H =      0.00000
charge of  199H =     -0.00000
Dipole moment(X, Y, Z, Debye): -0.00000,  0.00000, -0.00000
#
# Preparing AFQMC calculation
# Calculating Cholesky integrals
# Finished calculating Cholesky integrals
#
# Size of the correlation space:
# Number of electrons: (100, 100)
# Number of basis functions: 200
# Number of Cholesky vectors: 300
#

******** <class 'pyscf.ci.cisd.RCISD'> ********
CISD nocc = 100, nmo = 200
frozen orbitals 0
max_cycle = 50
direct = 0
conv_tol = 1e-09
max_cycle = 50
max_space = 12
lindep = 0
nroots = 1
max_memory 4000 MB (current use 1864 MB)
Init t2, MP2 energy = -2.27971516207177
RCISD converged
E(RCISD) = -107.2207074890347  E_corr = -1.578293137676586
